

     ************************************************************************
     *************** Dalton - An Electronic Structure Program ***************
     ************************************************************************

    This is output from DALTON release Dalton2020.0.beta (2020)
         ( Web site: http://daltonprogram.org )

   ----------------------------------------------------------------------------

    NOTE:
     
    Dalton is an experimental code for the evaluation of molecular
    properties using (MC)SCF, DFT, CI, and CC wave functions.
    The authors accept no responsibility for the performance of
    the code or for the correctness of the results.
     
    The code (in whole or part) is provided under a licence and
    is not to be reproduced for further distribution without
    the written permission of the authors or their representatives.
     
    See the home page "http://daltonprogram.org" for further information.
     
    If results obtained with this code are published,
    the appropriate citations would be both of:
     
       K. Aidas, C. Angeli, K. L. Bak, V. Bakken, R. Bast,
       L. Boman, O. Christiansen, R. Cimiraglia, S. Coriani,
       P. Dahle, E. K. Dalskov, U. Ekstroem,
       T. Enevoldsen, J. J. Eriksen, P. Ettenhuber, B. Fernandez,
       L. Ferrighi, H. Fliegl, L. Frediani, K. Hald, A. Halkier,
       C. Haettig, H. Heiberg, T. Helgaker, A. C. Hennum,
       H. Hettema, E. Hjertenaes, S. Hoest, I.-M. Hoeyvik,
       M. F. Iozzi, B. Jansik, H. J. Aa. Jensen, D. Jonsson,
       P. Joergensen, J. Kauczor, S. Kirpekar,
       T. Kjaergaard, W. Klopper, S. Knecht, R. Kobayashi, H. Koch,
       J. Kongsted, A. Krapp, K. Kristensen, A. Ligabue,
       O. B. Lutnaes, J. I. Melo, K. V. Mikkelsen, R. H. Myhre,
       C. Neiss, C. B. Nielsen, P. Norman, J. Olsen,
       J. M. H. Olsen, A. Osted, M. J. Packer, F. Pawlowski,
       T. B. Pedersen, P. F. Provasi, S. Reine, Z. Rinkevicius,
       T. A. Ruden, K. Ruud, V. Rybkin, P. Salek, C. C. M. Samson,
       A. Sanchez de Meras, T. Saue, S. P. A. Sauer,
       B. Schimmelpfennig, K. Sneskov, A. H. Steindal,
       K. O. Sylvester-Hvid, P. R. Taylor, A. M. Teale,
       E. I. Tellgren, D. P. Tew, A. J. Thorvaldsen, L. Thoegersen,
       O. Vahtras, M. A. Watson, D. J. D. Wilson, M. Ziolkowski
       and H. Agren,
       "The Dalton quantum chemistry program system",
       WIREs Comput. Mol. Sci. 2014, 4:269–284 (doi: 10.1002/wcms.1172)
     
    and
     
       Dalton, a molecular electronic structure program,
       Release Dalton2020.0.beta (2020), see http://daltonprogram.org
   ----------------------------------------------------------------------------

    Authors in alphabetical order (major contribution(s) in parenthesis):

  Kestutis Aidas,           Vilnius University,           Lithuania   (QM/MM)
  Celestino Angeli,         University of Ferrara,        Italy       (NEVPT2)
  Keld L. Bak,              UNI-C,                        Denmark     (AOSOPPA, non-adiabatic coupling, magnetic properties)
  Vebjoern Bakken,          University of Oslo,           Norway      (DALTON; geometry optimizer, symmetry detection)
  Radovan Bast,             UiT The Arctic U. of Norway,  Norway      (DALTON installation and execution frameworks)
  Pablo Baudin,             University of Valencia,       Spain       (Cholesky excitation energies)
  Linus Boman,              NTNU,                         Norway      (Cholesky decomposition and subsystems)
  Ove Christiansen,         Aarhus University,            Denmark     (CC module)
  Renzo Cimiraglia,         University of Ferrara,        Italy       (NEVPT2)
  Sonia Coriani,            Technical Univ. of Denmark,   Denmark     (CC module, MCD in RESPONS)
  Janusz Cukras,            University of Trieste,        Italy       (MChD in RESPONS)
  Paal Dahle,               University of Oslo,           Norway      (Parallelization)
  Erik K. Dalskov,          UNI-C,                        Denmark     (SOPPA)
  Thomas Enevoldsen,        Univ. of Southern Denmark,    Denmark     (SOPPA)
  Janus J. Eriksen,         Aarhus University,            Denmark     (Polarizable embedding model, TDA)
  Rasmus Faber,             University of Copenhagen,     Denmark     (Vib.avg. NMR with SOPPA, parallel AO-SOPPA)
  Tobias Fahleson,          KTH Stockholm,                Sweden      (Damped cubic response)
  Berta Fernandez,          U. of Santiago de Compostela, Spain       (doublet spin, ESR in RESPONS)
  Lara Ferrighi,            Aarhus University,            Denmark     (PCM Cubic response)
  Heike Fliegl,             University of Oslo,           Norway      (CCSD(R12))
  Luca Frediani,            UiT The Arctic U. of Norway,  Norway      (PCM)
  Bin Gao,                  UiT The Arctic U. of Norway,  Norway      (Gen1Int library)
  Christof Haettig,         Ruhr-University Bochum,       Germany     (CC module)
  Kasper Hald,              Aarhus University,            Denmark     (CC module)
  Asger Halkier,            Aarhus University,            Denmark     (CC module)
  Frederik Beyer Hansen,    University of Copenhagen,     Denmark     (Parallel AO-SOPPA)
  Erik D. Hedegaard,        Univ. of Southern Denmark,    Denmark     (Polarizable embedding model, QM/MM)
  Hanne Heiberg,            University of Oslo,           Norway      (geometry analysis, selected one-electron integrals)
  Trygve Helgaker,          University of Oslo,           Norway      (DALTON; ABACUS, ERI, DFT modules, London, and much more)
  Alf Christian Hennum,     University of Oslo,           Norway      (Parity violation)
  Hinne Hettema,            University of Auckland,       New Zealand (quadratic response in RESPONS; SIRIUS supersymmetry)
  Eirik Hjertenaes,         NTNU,                         Norway      (Cholesky decomposition)
  Pi A. B. Haase,           University of Copenhagen,     Denmark     (Triplet AO-SOPPA)
  Maria Francesca Iozzi,    University of Oslo,           Norway      (RPA)
  Christoph Jacob           TU Braunschweig               Germany     (Frozen density embedding model)
  Brano Jansik              Technical Univ. of Ostrava    Czech Rep.  (DFT cubic response)
  Hans Joergen Aa. Jensen,  Univ. of Southern Denmark,    Denmark     (DALTON; SIRIUS, RESPONS, ABACUS modules, London, and much more)
  Dan Jonsson,              UiT The Arctic U. of Norway,  Norway      (cubic response in RESPONS module)
  Poul Joergensen,          Aarhus University,            Denmark     (RESPONS, ABACUS, and CC modules)
  Maciej Kaminski,          University of Warsaw,         Poland      (CPPh in RESPONS)
  Joanna Kauczor,           Linkoeping University,        Sweden      (Complex polarization propagator (CPP) module)
  Sheela Kirpekar,          Univ. of Southern Denmark,    Denmark     (Mass-velocity & Darwin integrals)
  Wim Klopper,              KIT Karlsruhe,                Germany     (R12 code in CC, SIRIUS, and ABACUS modules)
  Stefan Knecht,            ETH Zurich,                   Switzerland (Parallel CI and MCSCF)
  Rika Kobayashi,           Australian National Univ.,    Australia   (DIIS in CC, London in MCSCF)
  Henrik Koch,              NTNU,                         Norway      (CC module, Cholesky decomposition)
  Jacob Kongsted,           Univ. of Southern Denmark,    Denmark     (Polarizable embedding model, QM/MM)
  Andrea Ligabue,           University of Modena,         Italy       (CTOCD, AOSOPPA)
  Nanna H. List             Univ. of Southern Denmark,    Denmark     (Polarizable embedding model)
  Ola B. Lutnaes,           University of Oslo,           Norway      (DFT Hessian)
  Juan I. Melo,             University of Buenos Aires,   Argentina   (LRESC, Relativistic Effects on NMR Shieldings)
  Kurt V. Mikkelsen,        University of Copenhagen,     Denmark     (MC-SCRF and QM/MM)
  Rolf H. Myhre,            NTNU,                         Norway      (Subsystems and CC3)
  Christian Neiss,          Univ. Erlangen-Nuernberg,     Germany     (CCSD(R12))
  Christian B. Nielsen,     University of Copenhagen,     Denmark     (QM/MM)
  Patrick Norman,           KTH Stockholm,                Sweden      (Cubic response and complex frequency response in RESPONS)
  Jeppe Olsen,              Aarhus University,            Denmark     (SIRIUS CI/density modules)
  Jogvan Magnus H. Olsen,   Univ. of Southern Denmark,    Denmark     (Polarizable embedding model, QM/MM)
  Anders Osted,             Copenhagen University,        Denmark     (QM/MM)
  Martin J. Packer,         University of Sheffield,      UK          (SOPPA)
  Filip Pawlowski,          Kazimierz Wielki University,  Poland      (CC3)
  Morten N. Pedersen,       Univ. of Southern Denmark,    Denmark     (Polarizable embedding model)
  Thomas B. Pedersen,       University of Oslo,           Norway      (Cholesky decomposition)
  Patricio F. Provasi,      University of Northeastern,   Argentina   (Analysis of coupling constants in localized orbitals)
  Zilvinas Rinkevicius,     KTH Stockholm,                Sweden      (open-shell DFT, ESR)
  Elias Rudberg,            KTH Stockholm,                Sweden      (DFT grid and basis info)
  Torgeir A. Ruden,         University of Oslo,           Norway      (Numerical derivatives in ABACUS)
  Kenneth Ruud,             UiT The Arctic U. of Norway,  Norway      (DALTON; ABACUS magnetic properties and much more)
  Pawel Salek,              KTH Stockholm,                Sweden      (DALTON; DFT code)
  Claire C. M. Samson       University of Karlsruhe       Germany     (Boys localization, r12 integrals in ERI)
  Alfredo Sanchez de Meras, University of Valencia,       Spain       (CC module, Cholesky decomposition)
  Trond Saue,               Paul Sabatier University,     France      (direct Fock matrix construction)
  Stephan P. A. Sauer,      University of Copenhagen,     Denmark     (SOPPA(CCSD), SOPPA prop., AOSOPPA, vibrational g-factors)
  Andre S. P. Gomes,        CNRS/Universite de Lille,     France      (Frozen density embedding model)
  Bernd Schimmelpfennig,    Forschungszentrum Karlsruhe,  Germany     (AMFI module)
  Anna K. Schnack-Petersen, University of Copenhagen,     Denmark     (RPA(D) and HRPA(D) properties in AOSOPPA)
  Kristian Sneskov,         Aarhus University,            Denmark     (Polarizable embedding model, QM/MM)
  Arnfinn H. Steindal,      UiT The Arctic U. of Norway,  Norway      (parallel QM/MM, Polarizable embedding model)
  Casper Steinmann,         Univ. of Southern Denmark,    Denmark     (QFIT, Polarizable embedding model)
  K. O. Sylvester-Hvid,     University of Copenhagen,     Denmark     (MC-SCRF)
  Peter R. Taylor,          VLSCI/Univ. of Melbourne,     Australia   (Symmetry handling ABACUS, integral transformation)
  Andrew M. Teale,          University of Nottingham,     England     (DFT-AC, DFT-D)
  David P. Tew,             University of Bristol,        England     (CCSD(R12))
  Olav Vahtras,             KTH Stockholm,                Sweden      (triplet response, spin-orbit, ESR, TDDFT, open-shell DFT)
  Lucas Visscher,           Vrije Universiteit Amsterdam, Netherlands (Frozen density embedding model)
  David J. Wilson,          La Trobe University,          Australia   (DFT Hessian and DFT magnetizabilities)
  Hans Agren,               KTH Stockholm,                Sweden      (SIRIUS module, RESPONS, MC-SCRF solvation model)
 --------------------------------------------------------------------------------

     Date and time (Linux)  : Tue Sep 29 13:14:09 2020
     Host name              : calogin2                                

 * Work memory size             :    64000000 =  488.28 megabytes.

 * Directories for basis set searches:
   1) /home/kcpearce/dalton_test/h2o2/no_london_orbitals/test
   2) /groups/crawdad_lab/dalton/build/basis


Compilation information
-----------------------

 Who compiled             | drobe88
 Host                     | calogin1
 System                   | Linux-3.10.0-693.21.1.el7.x86_64
 CMake generator          | Unix Makefiles
 Processor                | x86_64
 64-bit integers          | OFF
 MPI                      | OFF
 Fortran compiler         | /opt/apps/intel/18.2/bin/ifort
 Fortran compiler version | ifort (IFORT) 18.0.2 20180210
 C compiler               | /opt/apps/intel/18.2/bin/icc
 C compiler version       | icc (ICC) 18.0.2 20180210
 C++ compiler             | /opt/apps/intel/18.2/bin/icpc
 C++ compiler version     | icpc (ICC) 18.0.2 20180210
 BLAS                     | /opt/apps/intel18_2/mkl/18.2/lib/intel64/libmkl_in
                          | tel_lp64.so;/opt/apps/intel18_2/mkl/18.2/lib/intel
                          | 64/libmkl_sequential.so;/opt/apps/intel18_2/mkl/18
                          | .2/lib/intel64/libmkl_core.so;/usr/lib64/libpthrea
                          | d.so;/usr/lib64/libm.so
 LAPACK                   | /opt/apps/intel18_2/mkl/18.2/lib/intel64/libmkl_la
                          | pack95_lp64.a;/opt/apps/intel18_2/mkl/18.2/lib/int
                          | el64/libmkl_intel_lp64.so
 Static linking           | OFF
 Last Git revision        | 8060a25a65b546406093248f4212d9407b6636d7
 Git branch               | master
 Configuration time       | 2020-07-10 11:14:10.581666


   Content of the .dal input file
 ----------------------------------

**DALTON INPUT
.PROPERTIES
.RUN RESPONSE
**INTEGRALS
.PROPRI
.SQHDOL
.SQHDOR
**WAVEFUNCTION
.HF
*SCF INPUT
.THRESH
1.0D-10
**PROPERTIES
.VCD
.NOLOND
*AAT
.INTPRI
5
.PRINT
5
*LINRES
.PRINT
5
*VIBANA
.HESPUN
.PRINT
10
**END OF DALTON INPUT


   Content of the .mol file
 ----------------------------

BASIS
STO-3G


Atomtypes=2 Bohr NoSymmetry
Charge=8.0 Atoms=2
O       0.0000000000        1.3192641900       -0.0952542913
O      -0.0000000000       -1.3192641900       -0.0952542913
Charge=1.0 Atoms=2
H       1.6464858700        1.6841036400        0.7620343300
H      -1.6464858700       -1.6841036400        0.7620343300


       *******************************************************************
       *********** Output from DALTON general input processing ***********
       *******************************************************************

 --------------------------------------------------------------------------------
   Overall default print level:    0
   Print level for DALTON.STAT:    1

    HERMIT 1- and 2-electron integral sections will be executed
    "Old" integral transformation used (limited to max 255 basis functions)
    Wave function sections will be executed (SIRIUS module)
    Dynamic molecular response properties section will be executed (RESPONSE module)
    Static molecular property section will be executed (ABACUS module)
 --------------------------------------------------------------------------------


   ****************************************************************************
   *************** Output of molecule and basis set information ***************
   ****************************************************************************


    The two title cards from your ".mol" input:
    ------------------------------------------------------------------------
 1:                                                                         
 2:                                                                         
    ------------------------------------------------------------------------

  Atomic type no.    1
  --------------------
  Nuclear charge:   8.00000
  Number of symmetry independent centers:    2
  Number of basis sets to read;    2
  Basis set file used for this atomic type with Z =   8 :
     "/groups/crawdad_lab/dalton/build/basis/STO-3G"

  Atomic type no.    2
  --------------------
  Nuclear charge:   1.00000
  Number of symmetry independent centers:    2
  Number of basis sets to read;    2
  Basis set file used for this atomic type with Z =   1 :
     "/groups/crawdad_lab/dalton/build/basis/STO-3G"


                         SYMGRP: Point group information
                         -------------------------------

@    Point group: C1 


                                 Isotopic Masses
                                 ---------------

                           O          15.994915
                           O          15.994915
                           H           1.007825
                           H           1.007825

                       Total mass:    34.005480 amu
                       Natural abundance:  99.491 %

 Center-of-mass coordinates (a.u.):    0.000000    0.000000   -0.044439
 Center-of-mass coordinates (Angs):    0.000000    0.000000   -0.023516


  Atoms and basis sets
  --------------------

  Number of atom types :    2
  Total number of atoms:    4

  Basis set used is "STO-3G" from the basis set library.

  label    atoms   charge   prim   cont     basis
  ----------------------------------------------------------------------
  O           2    8.0000    15     5      [6s3p|2s1p]                                        
  H           2    1.0000     3     1      [3s|1s]                                            
  ----------------------------------------------------------------------
  total:      4   18.0000    36    12
  ----------------------------------------------------------------------

  Threshold for neglecting AO integrals:  1.00D-12


  Cartesian Coordinates (a.u.)
  ----------------------------

  Total number of coordinates:   12
  O       :     1  x   0.0000000000    2  y   1.3192641900    3  z  -0.0952542913
  O       :     4  x   0.0000000000    5  y  -1.3192641900    6  z  -0.0952542913
  H       :     7  x   1.6464858700    8  y   1.6841036400    9  z   0.7620343300
  H       :    10  x  -1.6464858700   11  y  -1.6841036400   12  z   0.7620343300


   Interatomic separations (in Angstrom):
   --------------------------------------

            O           O           H           H     
            ------      ------      ------      ------
 O     :    0.000000
 O     :    1.396249    0.000000
 H     :    1.001106    1.868384    0.000000
 H     :    1.868384    1.001106    2.492671    0.000000


  Max    interatomic separation is    2.4927 Angstrom (    4.7105 Bohr)
  between atoms    4 and    3, "H     " and "H     ".

  Min HX interatomic separation is    1.0011 Angstrom (    1.8918 Bohr)

  Min YX interatomic separation is    1.3962 Angstrom (    2.6385 Bohr)


  Bond distances (Angstrom):
  --------------------------

                  atom 1     atom 2       distance
                  ------     ------       --------
  bond distance:  O          O            1.396249
  bond distance:  H          O            1.001106
  bond distance:  H          O            1.001106


  Bond angles (degrees):
  ----------------------

                  atom 1     atom 2     atom 3         angle
                  ------     ------     ------         -----
  bond angle:     O          O          H            101.119
  bond angle:     O          O          H            101.119




 Principal moments of inertia (u*A**2) and principal axes
 --------------------------------------------------------

   IA       1.765519          0.098472    0.995140    0.000000
   IB      17.737116          0.995140   -0.098472    0.000000
   IC      18.722150          0.000000    0.000000    1.000000


 Rotational constants
 --------------------

               A                   B                   C

         286249.5871          28492.7388          26993.6422 MHz
            9.548258            0.950415            0.900411 cm-1


@  Nuclear repulsion energy :   37.457357686203 Hartree


                     .---------------------------------------.
                     | Starting in Integral Section (HERMIT) |
                     `---------------------------------------'



 ***************************************************************************************
 ****************** Output from **INTEGRALS input processing (HERMIT) ******************
 ***************************************************************************************



    *************************************************************************
    ****************** Output from HERMIT input processing ******************
    *************************************************************************


 Default print level:        1

 Calculation of one- and two-electron Hamiltonian integrals.

 The following one-electron property integrals are calculated as requested:
          - overlap integrals
          - Bra differentiated half-derivative overlap matrix
          - Ket differentiated half-derivative overlap matrix

 All one-electron property integrals are printed.

 Center of mass  (bohr):      0.000000000000      0.000000000000     -0.044439134169
 Operator center (bohr):      0.000000000000      0.000000000000      0.000000000000
 Gauge origin    (bohr):      0.000000000000      0.000000000000      0.000000000000
 Dipole origin   (bohr):      0.000000000000      0.000000000000      0.000000000000


     ************************************************************************
     ************************** Output from HERINT **************************
     ************************************************************************



                      Nuclear contribution to dipole moments
                      --------------------------------------

                 au               Debye          C m (/(10**-30)

      x      0.00000000         0.00000000         0.00000000
      y      0.00000000         0.00000000         0.00000000
      z     -0.00000000        -0.00000000        -0.00000001




                        +---------------------------------+
                        ! Integrals of operator: HUCKOVLP !
                        +---------------------------------+

 Symmetry of operator:  A  ( 1)

               Column   1     Column   2     Column   3     Column   4
       1       1.00000000
       2       0.23670394     1.00000000
       3       0.00000000     0.00000000     1.00000000
       4      -0.00000000     0.00000000     0.00000000     1.00000000
       5       0.00000000    -0.00000000     0.00000000    -0.00000000
       6       0.00000000     0.01177913     0.00000000    -0.02133979
       7       0.01177913     0.18924212     0.00000000    -0.23575071
       8       0.00000000     0.00000000     0.09363549     0.00000000
       9       0.02133979     0.23575071     0.00000000    -0.25467158
      10       0.00000000    -0.00000000     0.00000000     0.00000000
      11       0.04862345     0.44644389     0.32880771     0.07285943
      12       0.00679168     0.09902999    -0.04975068    -0.09075060
      13       0.99963744     0.25305034     0.00000000     0.00000000
      14      -0.01704350     0.96584043     0.00000000    -0.00000000
      15       0.00000000     0.00000000     0.98098348     0.00000000
      16       0.00000000     0.00000000     0.00000000     0.98098348
      17       0.00000000     0.00000000     0.00000000    -0.00000000
      18      -0.00002010     0.01308253     0.00000000    -0.02343603
      19       0.01424422     0.20305847     0.00000000    -0.23024659
      20       0.00000000     0.00000000     0.12754937     0.00000000
      21       0.03409613     0.31787963     0.00000000    -0.24048650
      22       0.00000000     0.00000000     0.00000000    -0.00000000
      23       0.05275455     0.47325650     0.30805003     0.06825980
      24       0.00962778     0.12752909    -0.05465450    -0.09969571

               Column   5     Column   6     Column   7     Column   8
       5       1.00000000
       6       0.00000000     1.00000000
       7      -0.00000000     0.23670394     1.00000000
       8       0.00000000     0.00000000     0.00000000     1.00000000
       9      -0.00000000     0.00000000    -0.00000000     0.00000000
      10       0.09363549     0.00000000    -0.00000000     0.00000000
      11       0.17120287     0.00679168     0.09902999     0.04975068
      12       0.02590407     0.04862345     0.44644389    -0.32880771
      13      -0.00000000    -0.00002010     0.01308253     0.00000000
      14       0.00000000     0.01424422     0.20305847     0.00000000
      15       0.00000000     0.00000000     0.00000000     0.12754937
      16      -0.00000000    -0.03409613    -0.31787963     0.00000000
      17       0.98098348     0.00000000     0.00000000     0.00000000
      18      -0.00000000     0.99963744     0.25305034     0.00000000
      19       0.00000000    -0.01704350     0.96584043     0.00000000
      20       0.00000000     0.00000000     0.00000000     0.98098348
      21       0.00000000    -0.00000000    -0.00000000     0.00000000
      22       0.12754937     0.00000000     0.00000000     0.00000000
      23       0.16039481     0.00962778     0.12752909     0.05465450
      24       0.02845739     0.05275455     0.47325650    -0.30805003

               Column   9     Column  10     Column  11     Column  12
       9       1.00000000
      10       0.00000000     1.00000000
      11       0.09075060     0.02590407     1.00000000
      12      -0.07285943     0.17120287     0.05020344     1.00000000
      13       0.02343603    -0.00000000     0.05305346     0.00754192
      14       0.23024659     0.00000000     0.45548701     0.11359634
      15       0.00000000     0.00000000     0.38713144    -0.08934375
      16      -0.24048650    -0.00000000     0.08578320    -0.16297263
      17       0.00000000     0.12754937     0.20157074     0.04651931
      18      -0.00000000    -0.00000000     0.00754192     0.05305346
      19       0.00000000     0.00000000     0.11359634     0.45548701
      20       0.00000000     0.00000000     0.08934375    -0.38713144
      21       0.98098348     0.00000000     0.16297263    -0.08578320
      22       0.00000000     0.98098348     0.04651931     0.20157074
      23       0.09969571     0.02845739     0.99165347     0.07340825
      24      -0.06825980     0.16039481     0.07340825     0.99165347

               Column  13     Column  14     Column  15     Column  16
      13       1.00000000
      14      -0.00000000     1.00000000
      15       0.00000000     0.00000000     1.00000000
      16      -0.00000000     0.00000000     0.00000000     1.00000000
      17      -0.00000000    -0.00000000     0.00000000    -0.00000000
      18      -0.00004017     0.01572827     0.00000000    -0.03718318
      19       0.01572827     0.21713649     0.00000000    -0.31340192
      20       0.00000000     0.00000000     0.17968189     0.00000000
      21       0.03718318     0.31340192     0.00000000    -0.22171921
      22      -0.00000000    -0.00000000     0.00000000    -0.00000000
      23       0.05749534     0.48512038     0.37051356     0.08210089
      24       0.01065663     0.14385113    -0.09661458    -0.17623542

               Column  17     Column  18     Column  19     Column  20
      17       1.00000000
      18      -0.00000000     1.00000000
      19      -0.00000000    -0.00000000     1.00000000
      20       0.00000000     0.00000000     0.00000000     1.00000000
      21       0.00000000     0.00000000    -0.00000000     0.00000000
      22       0.17968189    -0.00000000    -0.00000000     0.00000000
      23       0.19291818     0.01065663     0.14385113     0.09661458
      24       0.05030507     0.05749534     0.48512038    -0.37051356

               Column  21     Column  22     Column  23     Column  24
      21       1.00000000
      22       0.00000000     1.00000000
      23       0.17623542     0.05030507     1.00000000
      24      -0.08210089     0.19291818     0.10185729     1.00000000
    ==== End of matrix output ====


                         +-------------------------------+
                         ! Integrals of operator: HUCKEL !
                         +-------------------------------+

 Symmetry of operator:  A  ( 1)

               Column   1     Column   2     Column   3     Column   4
       1       1.00000000
       2       0.23670394     1.00000000
       3       0.00000000     0.00000000     1.00000000
       4      -0.00000000     0.00000000     0.00000000     1.00000000
       5       0.00000000    -0.00000000     0.00000000    -0.00000000
       6       0.00000000     0.01177913     0.00000000    -0.02133979
       7       0.01177913     0.18924212     0.00000000    -0.23575071
       8       0.00000000     0.00000000     0.09363549     0.00000000
       9       0.02133979     0.23575071     0.00000000    -0.25467158
      10       0.00000000    -0.00000000     0.00000000     0.00000000
      11       0.04862345     0.44644389     0.32880771     0.07285943
      12       0.00679168     0.09902999    -0.04975068    -0.09075060
      13       0.99963744     0.25305034     0.00000000     0.00000000
      14      -0.01704350     0.96584043     0.00000000    -0.00000000
      15       0.00000000     0.00000000     0.98098348     0.00000000
      16       0.00000000     0.00000000     0.00000000     0.98098348
      17       0.00000000     0.00000000     0.00000000    -0.00000000
      18      -0.00002010     0.01308253     0.00000000    -0.02343603
      19       0.01424422     0.20305847     0.00000000    -0.23024659
      20       0.00000000     0.00000000     0.12754937     0.00000000
      21       0.03409613     0.31787963     0.00000000    -0.24048650
      22       0.00000000     0.00000000     0.00000000    -0.00000000
      23       0.05275455     0.47325650     0.30805003     0.06825980
      24       0.00962778     0.12752909    -0.05465450    -0.09969571

               Column   5     Column   6     Column   7     Column   8
       5       1.00000000
       6       0.00000000     1.00000000
       7      -0.00000000     0.23670394     1.00000000
       8       0.00000000     0.00000000     0.00000000     1.00000000
       9      -0.00000000     0.00000000    -0.00000000     0.00000000
      10       0.09363549     0.00000000    -0.00000000     0.00000000
      11       0.17120287     0.00679168     0.09902999     0.04975068
      12       0.02590407     0.04862345     0.44644389    -0.32880771
      13      -0.00000000    -0.00002010     0.01308253     0.00000000
      14       0.00000000     0.01424422     0.20305847     0.00000000
      15       0.00000000     0.00000000     0.00000000     0.12754937
      16      -0.00000000    -0.03409613    -0.31787963     0.00000000
      17       0.98098348     0.00000000     0.00000000     0.00000000
      18      -0.00000000     0.99963744     0.25305034     0.00000000
      19       0.00000000    -0.01704350     0.96584043     0.00000000
      20       0.00000000     0.00000000     0.00000000     0.98098348
      21       0.00000000    -0.00000000    -0.00000000     0.00000000
      22       0.12754937     0.00000000     0.00000000     0.00000000
      23       0.16039481     0.00962778     0.12752909     0.05465450
      24       0.02845739     0.05275455     0.47325650    -0.30805003

               Column   9     Column  10     Column  11     Column  12
       9       1.00000000
      10       0.00000000     1.00000000
      11       0.09075060     0.02590407     1.00000000
      12      -0.07285943     0.17120287     0.05020344     1.00000000
      13       0.02343603    -0.00000000     0.05305346     0.00754192
      14       0.23024659     0.00000000     0.45548701     0.11359634
      15       0.00000000     0.00000000     0.38713144    -0.08934375
      16      -0.24048650    -0.00000000     0.08578320    -0.16297263
      17       0.00000000     0.12754937     0.20157074     0.04651931
      18      -0.00000000    -0.00000000     0.00754192     0.05305346
      19       0.00000000     0.00000000     0.11359634     0.45548701
      20       0.00000000     0.00000000     0.08934375    -0.38713144
      21       0.98098348     0.00000000     0.16297263    -0.08578320
      22       0.00000000     0.98098348     0.04651931     0.20157074
      23       0.09969571     0.02845739     0.99165347     0.07340825
      24      -0.06825980     0.16039481     0.07340825     0.99165347

               Column  13     Column  14     Column  15     Column  16
      13     -20.68090000
      14       0.00000000    -1.25040000
      15       0.00000000     0.00000000    -0.61620000
      16       0.00000000     0.00000000     0.00000000    -0.61620000
      17       0.00000000     0.00000000     0.00000000     0.00000000

               Column  17     Column  18     Column  19     Column  20
      17      -0.61620000
      18       0.00000000   -20.68090000
      19       0.00000000     0.00000000    -1.25040000
      20       0.00000000     0.00000000     0.00000000    -0.61620000

               Column  21     Column  22     Column  23     Column  24
      21      -0.61620000
      22      -0.00000000    -0.61620000
      23       0.00000000     0.00000000    -0.50000000
      24       0.00000000     0.00000000     0.00000000    -0.50000000
    ==== End of matrix output ====


                         +--------------------------------+
                         ! Integrals of operator: OVERLAP !
                         +--------------------------------+

 Symmetry of operator:  A  ( 1)

               Column   1     Column   2     Column   3     Column   4
       1       1.00000000
       2       0.23670394     1.00000000
       3       0.00000000     0.00000000     1.00000000
       4      -0.00000000     0.00000000     0.00000000     1.00000000
       5       0.00000000    -0.00000000     0.00000000    -0.00000000
       6       0.00000000     0.01177913     0.00000000    -0.02133979
       7       0.01177913     0.18924212     0.00000000    -0.23575071
       8       0.00000000     0.00000000     0.09363549     0.00000000
       9       0.02133979     0.23575071     0.00000000    -0.25467158
      10       0.00000000    -0.00000000     0.00000000     0.00000000
      11       0.04862345     0.44644389     0.32880771     0.07285943
      12       0.00679168     0.09902999    -0.04975068    -0.09075060

               Column   5     Column   6     Column   7     Column   8
       5       1.00000000
       6       0.00000000     1.00000000
       7      -0.00000000     0.23670394     1.00000000
       8       0.00000000     0.00000000     0.00000000     1.00000000
       9      -0.00000000     0.00000000    -0.00000000     0.00000000
      10       0.09363549     0.00000000    -0.00000000     0.00000000
      11       0.17120287     0.00679168     0.09902999     0.04975068
      12       0.02590407     0.04862345     0.44644389    -0.32880771

               Column   9     Column  10     Column  11     Column  12
       9       1.00000000
      10       0.00000000     1.00000000
      11       0.09075060     0.02590407     1.00000000
      12      -0.07285943     0.17120287     0.05020344     1.00000000
    ==== End of matrix output ====


                        +---------------------------------+
                        ! Integrals of operator: HJPOPOVL !
                        +---------------------------------+

 Symmetry of operator:  A  ( 1)

               Column   1     Column   2     Column   3     Column   4     Column   5
       1       1.00000000     0.23670394     0.00000000    -0.00000000     0.00000000
       2       0.23670394     1.00000000     0.00000000     0.00000000    -0.00000000
       3       0.00000000     0.00000000     1.00000000     0.00000000     0.00000000
       4      -0.00000000     0.00000000     0.00000000     1.00000000    -0.00000000
       5       0.00000000    -0.00000000     0.00000000    -0.00000000     1.00000000
       6       0.00000000     0.00103080     0.00000000    -0.00198825     0.00000000
       7       0.02252747     0.18924212     0.00000000    -0.25324824    -0.00000000
       8       0.00000000     0.00000000     0.09363549     0.00000000     0.00000000
       9       0.04069133     0.21825317     0.00000000    -0.25467158    -0.00000000
      10       0.00000000    -0.00000000     0.00000000     0.00000000     0.09363549
      11       0.09346728     0.51498901     0.37145220     0.08230888     0.19340691
      12       0.01330824     0.12927654    -0.06357015    -0.11595881     0.03309956

               Column   6     Column   7     Column   8     Column   9     Column  10
       1       0.00000000     0.00103080     0.00000000     0.00198825     0.00000000
       2       0.02252747     0.18924212     0.00000000     0.25324824    -0.00000000
       3       0.00000000     0.00000000     0.09363549     0.00000000     0.00000000
       4      -0.04069133    -0.21825317     0.00000000    -0.25467158     0.00000000
       5       0.00000000    -0.00000000     0.00000000    -0.00000000     0.09363549
       6       1.00000000     0.23670394     0.00000000     0.00000000     0.00000000
       7       0.23670394     1.00000000     0.00000000    -0.00000000    -0.00000000
       8       0.00000000     0.00000000     1.00000000     0.00000000     0.00000000
       9       0.00000000    -0.00000000     0.00000000     1.00000000     0.00000000
      10       0.00000000    -0.00000000     0.00000000     0.00000000     1.00000000
      11       0.01330824     0.12927654     0.06357015     0.11595881     0.03309956
      12       0.09346728     0.51498901    -0.37145220    -0.08230888     0.19340691

               Column  11     Column  12
       1       0.00377962     0.00027513
       2       0.37789877     0.06878344
       3       0.28616322    -0.03593121
       4       0.06340998    -0.06554240
       5       0.14899883     0.01870858
       6       0.00027513     0.00377962
       7       0.06878344     0.37789877
       8       0.03593121    -0.28616322
       9       0.06554240    -0.06340998
      10       0.01870858     0.14899883
      11       1.00000000     0.05020344
      12       0.05020344     1.00000000
    ==== End of matrix output ====


                           +---------------------------+
                           ! Integrals of operator: R2 !
                           +---------------------------+

 Symmetry of operator:  A  ( 1)

               Column   1     Column   2     Column   3     Column   4
       1       1.80059393
       2       0.45571303     3.22452437
       3       0.00000000     0.00000000     3.23498472
       4       0.13401595     1.69175275     0.00000000     3.23498472
       5      -0.00967630    -0.12214893     0.00000000    -0.00000000
       6       0.00000000     0.01920006     0.00000000    -0.03553473
       7       0.01920006     0.33961286     0.00000000    -0.35540854
       8       0.00000000     0.00000000     0.23704844     0.00000000
       9       0.03553473     0.35540854     0.00000000    -0.19026025
      10      -0.00009085    -0.01929056     0.00000000     0.02353351
      11       0.09517797     2.10802896     1.73400723     1.14176627
      12       0.01198521     0.29494773    -0.20385577    -0.19330050

               Column   5     Column   6     Column   7     Column   8
       5       3.23498472
       6      -0.00009085     1.80059393
       7      -0.01929056     0.45571303     3.22452437
       8       0.00000000     0.00000000     0.00000000     3.23498472
       9      -0.02353351    -0.13401595    -1.69175275     0.00000000
      10       0.23704844    -0.00967630    -0.12214893     0.00000000
      11       0.84816319     0.01198521     0.29494773     0.20385577
      12       0.09325108     0.09517797     2.10802896    -1.73400723

               Column   9     Column  10     Column  11     Column  12
       9       3.23498472
      10       0.00000000     3.23498472
      11       0.19330050     0.09325108     8.07638986
      12      -1.14176627     0.84816319     0.23844080     8.07638986
    ==== End of matrix output ====


                           +---------------------------+
                           ! Integrals of operator: R4 !
                           +---------------------------+

 Symmetry of operator:  A  ( 1)

               Column   1     Column   2     Column   3     Column   4
       1       3.36505316
       2       0.98114519    15.63351678
       3       0.00000000     0.00000000    14.47526980
       4       0.53891627    12.90056992     0.00000000    18.61186044
       5      -0.03891115    -0.93145456     0.00000000    -0.29867256
       6       0.00000000     0.03534839     0.00000000    -0.06676009
       7       0.03534839     1.03869260     0.00000000    -0.97428123
       8       0.00000000     0.00000000     0.90216162     0.00000000
       9       0.06676009     0.97428123     0.00000000    -0.02862912
      10      -0.00031243    -0.10665955     0.00000000     0.11915532
      11       0.20745469    14.39519865    12.37673227    10.98178312
      12       0.02376159     1.44300919    -1.21625730    -0.71863559

               Column   5     Column   6     Column   7     Column   8
       5      14.49683473
       6      -0.00031243     3.36505316
       7      -0.10665955     0.98114519    15.63351678
       8       0.00000000     0.00000000     0.00000000    14.47526980
       9      -0.11915532    -0.53891627   -12.90056992     0.00000000
      10       0.90526221    -0.03891115    -0.93145456     0.00000000
      11       5.84939344     0.02376159     1.44300919     1.21625730
      12       0.52497796     0.20745469    14.39519865   -12.37673227

               Column   9     Column  10     Column  11     Column  12
       9      18.61186044
      10       0.29867256    14.49683473
      11       0.71863559     0.52497796    86.68328138
      12     -10.98178312     5.84939344     1.80564956    86.68328138
    ==== End of matrix output ====


                         +--------------------------------+
                         ! Integrals of operator: XDIPLEN !
                         +--------------------------------+

 Symmetry of operator:  A  ( 1)

               Column   1     Column   2     Column   3     Column   4
       3       0.05079193     0.64117284     0.00000000
       4       0.00000000     0.00000000     0.00000000     0.00000000
       5       0.00000000     0.00000000    -0.00000000     0.00000000
       6       0.00000000     0.00000000     0.00047690     0.00000000
       7       0.00000000     0.00000000     0.10125821     0.00000000
       8       0.00047690     0.10125821     0.00000000    -0.12352994
       9       0.00000000     0.00000000     0.12352994     0.00000000
      10       0.00000000     0.00000000    -0.00000000     0.00000000
      11       0.00311154     0.31110249     0.52268630     0.05220182
      12      -0.00022650    -0.05662548     0.09725208     0.05395732

               Column   5     Column   6     Column   7     Column   8
       8      -0.00000000     0.05079193     0.64117284     0.00000000
       9       0.00000000     0.00000000     0.00000000    -0.00000000
      10       0.00000000     0.00000000     0.00000000    -0.00000000
      11       0.12266223     0.00022650     0.05662548     0.09725208
      12      -0.01540171    -0.00311154    -0.31110249     0.52268630

               Column   9     Column  10     Column  11     Column  12
      11       0.05395732     0.01540171     1.64648587
      12       0.05220182    -0.12266223     0.00000000    -1.64648587
    ==== End of matrix output ====


                         +--------------------------------+
                         ! Integrals of operator: YDIPLEN !
                         +--------------------------------+

 Symmetry of operator:  A  ( 1)

               Column   1     Column   2     Column   3     Column   4
       1       1.31926419
       2       0.31227503     1.31926419
       3       0.00000000     0.00000000     1.31926419
       4       0.05079193     0.64117284     0.00000000     1.31926419
       5       0.00000000    -0.00000000     0.00000000    -0.00000000
       6       0.00000000    -0.01417989     0.00000000     0.02600670
       7       0.01417989     0.00000000     0.00000000     0.07817433
       8       0.00000000     0.00000000    -0.00000000     0.00000000
       9       0.02600670     0.07817433     0.00000000    -0.00000000
      10       0.00000000     0.00000000     0.00000000    -0.00000000
      11       0.06483665     0.65791363     0.48598605     0.39479252
      12       0.00854687     0.02735574    -0.01167697     0.04637191

               Column   5     Column   6     Column   7     Column   8
       5       1.31926419
       6      -0.00000000    -1.31926419
       7      -0.00000000    -0.31227503    -1.31926419
       8       0.00000000     0.00000000     0.00000000    -1.31926419
       9      -0.00000000     0.05079193     0.64117284     0.00000000
      10      -0.00000000    -0.00000000     0.00000000     0.00000000
      11       0.25304214    -0.00854687    -0.02735574    -0.01167697
      12       0.00607994    -0.06483665    -0.65791363     0.48598605

               Column   9     Column  10     Column  11     Column  12
       9      -1.31926419
      10      -0.00000000    -1.31926419
      11       0.04637191    -0.00607994     1.68410364
      12       0.39479252    -0.25304214     0.00000000    -1.68410364
    ==== End of matrix output ====


                         +--------------------------------+
                         ! Integrals of operator: ZDIPLEN !
                         +--------------------------------+

 Symmetry of operator:  A  ( 1)

               Column   1     Column   2     Column   3     Column   4
       1      -0.09525429
       2      -0.02254707    -0.09525429
       3       0.00000000     0.00000000    -0.09525429
       4       0.00000000    -0.00000000     0.00000000    -0.09525429
       5       0.05079193     0.64117284     0.00000000     0.00000000
       6      -0.00000000    -0.00112201     0.00000000     0.00203271
       7      -0.00112201    -0.01802612     0.00000000     0.02245627
       8       0.00000000     0.00000000    -0.00891918     0.00000000
       9      -0.00203271    -0.02245627     0.00000000     0.02425856
      10       0.00047690     0.10125821     0.00000000    -0.12352994
      11      -0.00301148     0.11945846     0.09134189     0.02024015
      12      -0.00052901     0.02005060    -0.01066274    -0.01944999

               Column   5     Column   6     Column   7     Column   8
       5      -0.09525429
       6       0.00047690    -0.09525429
       7       0.10125821    -0.02254707    -0.09525429
       8       0.00000000     0.00000000     0.00000000    -0.09525429
       9       0.12352994    -0.00000000     0.00000000     0.00000000
      10      -0.00891918     0.05079193     0.64117284     0.00000000
      11       0.33466415    -0.00052901     0.02005060     0.01066274
      12       0.07322382    -0.00301148     0.11945846    -0.09134189

               Column   9     Column  10     Column  11     Column  12
       9      -0.09525429
      10      -0.00000000    -0.09525429
      11       0.01944999     0.07322382     0.76203433
      12      -0.02024015     0.33466415     0.03825674     0.76203433
    ==== End of matrix output ====


                        +---------------------------------+
                        ! Integrals of operator: XXQUADRU !
                        +---------------------------------+

 Symmetry of operator:  A  ( 1)

               Column   1     Column   2     Column   3     Column   4
       1       0.44589327
       2       0.11046225     0.68321501
       3       0.00000000     0.00000000     0.58592818
       4       0.03350399     0.42293819     0.00000000     0.73447351
       5      -0.00241907    -0.03053723     0.00000000    -0.00000000
       6       0.00000000     0.00463468     0.00000000    -0.00858685
       7       0.00463468     0.05855063     0.00000000    -0.06016431
       8       0.00000000     0.00000000     0.02722552     0.00000000
       9       0.00858685     0.06016431     0.00000000    -0.02315716
      10      -0.00002271    -0.00482264     0.00000000     0.00588338
      11       0.02303122     0.39253544     0.26608852     0.26543225
      12       0.00289635     0.04557956    -0.02152927    -0.02359561

               Column   5     Column   6     Column   7     Column   8
       5       0.73447351
       6      -0.00002271     0.44589327
       7      -0.00482264     0.11046225     0.68321501
       8       0.00000000     0.00000000     0.00000000     0.58592818
       9      -0.00588338    -0.03350399    -0.42293819     0.00000000
      10       0.04858325    -0.00241907    -0.03053723     0.00000000
      11       0.16502350     0.00289635     0.04557956     0.02152927
      12       0.01625392     0.02303122     0.39253544    -0.26608852

               Column   9     Column  10     Column  11     Column  12
       9       0.73447351
      10       0.00000000     0.73447351
      11       0.02359561     0.01625392     1.17898747
      12      -0.26543225     0.16502350     0.04066888     1.17898747
    ==== End of matrix output ====


                        +---------------------------------+
                        ! Integrals of operator: XYQUADRU !
                        +---------------------------------+

 Symmetry of operator:  A  ( 1)

               Column   1     Column   2     Column   3     Column   4
       3      -0.01675199    -0.21146909     0.00000000
       4       0.00000000     0.00000000    -0.07427267     0.00000000
       5       0.00000000     0.00000000     0.00000000     0.00000000
       6       0.00000000     0.00000000     0.00013954     0.00000000
       7       0.00000000     0.00000000    -0.00470875     0.00000000
       8      -0.00013954     0.00470875     0.00000000    -0.01633426
       9       0.00000000     0.00000000    -0.01633426     0.00000000
      10       0.00000000     0.00000000     0.00000000     0.00000000
      11      -0.00104471    -0.11704220    -0.19239965    -0.05831420
      12       0.00007011     0.00100056    -0.00734578     0.00883675

               Column   5     Column   6     Column   7     Column   8
       8       0.00000000     0.01675199     0.21146909     0.00000000
       9       0.00000000     0.00000000     0.00000000    -0.07427267
      10       0.00000000     0.00000000     0.00000000    -0.00000000
      11      -0.04642591     0.00007011     0.00100056     0.00734578
      12      -0.00025631    -0.00104471    -0.11704220     0.19239965

               Column   9     Column  10     Column  11     Column  12
      11      -0.00883675    -0.00025631    -0.69321321
      12       0.05831420    -0.04642591    -0.00482798    -0.69321321
    ==== End of matrix output ====


                        +---------------------------------+
                        ! Integrals of operator: XZQUADRU !
                        +---------------------------------+

 Symmetry of operator:  A  ( 1)

               Column   1     Column   2     Column   3     Column   4
       3       0.00120954     0.01526862     0.00000000
       4       0.00000000     0.00000000     0.00000000     0.00000000
       5       0.00000000     0.00000000    -0.07427267     0.00000000
       6       0.00000000     0.00000000     0.00001136     0.00000000
       7       0.00000000     0.00000000     0.00241132     0.00000000
       8       0.00001136     0.00241132     0.00000000    -0.00294169
       9       0.00000000     0.00000000     0.00294169     0.00000000
      10       0.00000000     0.00000000    -0.01067886     0.00000000
      11       0.00003070    -0.02651189    -0.03457027    -0.00472682
      12      -0.00000408     0.00369686    -0.00474293    -0.00405112

               Column   5     Column   6     Column   7     Column   8
       8      -0.01067886     0.00120954     0.01526862     0.00000000
       9       0.00000000     0.00000000     0.00000000    -0.00000000
      10       0.00000000     0.00000000     0.00000000    -0.07427267
      11      -0.04966350     0.00000408    -0.00369686    -0.00474293
      12       0.00909518    -0.00003070     0.02651189    -0.03457027

               Column   9     Column  10     Column  11     Column  12
      11      -0.00405112    -0.00909518    -0.31366969
      12      -0.00472682     0.04966350     0.00000000     0.31366969
    ==== End of matrix output ====


                        +---------------------------------+
                        ! Integrals of operator: YYQUADRU !
                        +---------------------------------+

 Symmetry of operator:  A  ( 1)

               Column   1     Column   2     Column   3     Column   4
       1       0.01077877
       2       0.00746894     0.24810051
       3       0.00000000     0.00000000     0.29935901
       4      -0.00000000     0.00000000     0.00000000     0.15081368
       5      -0.00241907    -0.03053723     0.00000000    -0.00000000
       6       0.00000000     0.00035739     0.00000000    -0.00064207
       7       0.00035739     0.05313443     0.00000000    -0.05791042
       8       0.00000000     0.00000000     0.04292785     0.00000000
       9       0.00064207     0.05791042     0.00000000    -0.04939349
      10      -0.00002271    -0.00482264     0.00000000     0.00588338
      11       0.00149892     0.21475650     0.21490161     0.03053211
      12       0.00020786     0.04807223    -0.03827593    -0.04085692

               Column   5     Column   6     Column   7     Column   8
       5       0.29935901
       6      -0.00002271     0.01077877
       7      -0.00482264     0.00746894     0.24810051
       8       0.00000000     0.00000000     0.00000000     0.29935901
       9      -0.00588338     0.00000000     0.00000000     0.00000000
      10       0.04292785    -0.00241907    -0.03053723     0.00000000
      11       0.09822053     0.00020786     0.04807223     0.03827593
      12       0.01670641     0.00149892     0.21475650    -0.21490161

               Column   9     Column  10     Column  11     Column  12
       9       0.15081368
      10       0.00000000     0.29935901
      11       0.04085692     0.01670641     1.14766514
      12      -0.03053211     0.09822053     0.04045073     1.14766514
    ==== End of matrix output ====


                        +---------------------------------+
                        ! Integrals of operator: YZQUADRU !
                        +---------------------------------+

 Symmetry of operator:  A  ( 1)

               Column   1     Column   2     Column   3     Column   4
       1       0.03141639
       2       0.00743638     0.03141639
       3       0.00000000     0.00000000     0.03141639
       4       0.00120954     0.01526862     0.00000000     0.03141639
       5      -0.01675199    -0.21146909     0.00000000    -0.07427267
       6       0.00000000    -0.00033767     0.00000000     0.00061931
       7       0.00033767    -0.00000000     0.00000000     0.00186161
       8       0.00000000     0.00000000     0.00000000     0.00000000
       9       0.00061931     0.00186161     0.00000000    -0.00000000
      10      -0.00013954     0.00470875     0.00000000    -0.01633426
      11       0.00100004    -0.04527400    -0.03485285    -0.02096149
      12       0.00016703     0.00013047    -0.00053438    -0.00349682

               Column   5     Column   6     Column   7     Column   8
       5       0.03141639
       6       0.00013954    -0.03141639
       7      -0.00470875    -0.00743638    -0.03141639
       8       0.00000000     0.00000000     0.00000000    -0.03141639
       9      -0.01633426     0.00120954     0.01526862     0.00000000
      10       0.00000000     0.01675199     0.21146909     0.00000000
      11      -0.12138238    -0.00016703    -0.00013047    -0.00053438
      12      -0.00755981    -0.00100004     0.04527400    -0.03485285

               Column   9     Column  10     Column  11     Column  12
       9      -0.03141639
      10      -0.07427267    -0.03141639
      11      -0.00349682     0.00755981    -0.32083620
      12      -0.02096149     0.12138238    -0.00000000     0.32083620
    ==== End of matrix output ====


                        +---------------------------------+
                        ! Integrals of operator: ZZQUADRU !
                        +---------------------------------+

 Symmetry of operator:  A  ( 1)

               Column   1     Column   2     Column   3     Column   4
       1       0.44362493
       2       0.10992533     0.68094667
       3       0.00000000     0.00000000     0.73220517
       4       0.03350399     0.42293819     0.00000000     0.73220517
       5       0.00000000    -0.00000000     0.00000000    -0.00000000
       6       0.00000000     0.00460796     0.00000000    -0.00853844
       7       0.00460796     0.05812137     0.00000000    -0.05962954
       8       0.00000000     0.00000000     0.04837085     0.00000000
       9       0.00853844     0.05962954     0.00000000    -0.02257948
      10       0.00000000    -0.00000000     0.00000000     0.00000000
      11       0.02305885     0.44672255     0.38601348     0.27491878
      12       0.00288840     0.05382207    -0.04212268    -0.03219771

               Column   5     Column   6     Column   7     Column   8
       5       0.58365983
       6       0.00000000     0.44362493
       7      -0.00000000     0.10992533     0.68094667
       8       0.00000000     0.00000000     0.00000000     0.73220517
       9      -0.00000000    -0.03350399    -0.42293819     0.00000000
      10       0.02701312     0.00000000    -0.00000000     0.00000000
      11       0.16083756     0.00288840     0.05382207     0.04212268
      12       0.01366522     0.02305885     0.44672255    -0.38601348

               Column   9     Column  10     Column  11     Column  12
       9       0.73220517
      10       0.00000000     0.58365983
      11       0.03219771     0.01366522     1.71154232
      12      -0.27491878     0.16083756     0.03810078     1.71154232
    ==== End of matrix output ====


                        +---------------------------------+
                        ! Integrals of operator: KINENERG !
                        +---------------------------------+

 Symmetry of operator:  A  ( 1)

               Column   1     Column   2     Column   3     Column   4
       1      29.00319995
       2      -0.16801094     0.80812795
       3       0.00000000     0.00000000     2.52873120
       4       0.00000000     0.00000000     0.00000000     2.52873120
       5      -0.00000000    -0.00000000     0.00000000    -0.00000000
       6      -0.00000000    -0.01033821     0.00000000     0.01021490
       7      -0.01033821    -0.01309131     0.00000000    -0.06300687
       8       0.00000000     0.00000000     0.01846123     0.00000000
       9      -0.01021490     0.06300687     0.00000000    -0.18600431
      10      -0.00000000     0.00000000     0.00000000    -0.00000000
      11      -0.00517725     0.10854286     0.21897072     0.04852101
      12      -0.00199301    -0.01835876     0.00123251     0.00224823

               Column   5     Column   6     Column   7     Column   8
       5       2.52873120
       6      -0.00000000    29.00319995
       7      -0.00000000    -0.16801094     0.80812795
       8       0.00000000     0.00000000     0.00000000     2.52873120
       9      -0.00000000    -0.00000000    -0.00000000     0.00000000
      10       0.01846123    -0.00000000    -0.00000000     0.00000000
      11       0.11401319    -0.00199301    -0.01835876    -0.00123251
      12      -0.00064174    -0.00517725     0.10854286    -0.21897072

               Column   9     Column  10     Column  11     Column  12
       9       2.52873120
      10       0.00000000     2.52873120
      11      -0.00224823    -0.00064174     0.76003186
      12      -0.04852101     0.11401319    -0.01070582     0.76003186
    ==== End of matrix output ====


                        +---------------------------------+
                        ! Integrals of operator: SQHDL001 !
                        +---------------------------------+

 Symmetry of operator:  A  ( 1)

               Column   1     Column   2     Column   3     Column   4     Column   5
       1       0.00000000     0.00000000    -1.00208383     0.00000000     0.00000000
       2       0.00000000     0.00000000    -0.65238427     0.00000000     0.00000000
       3       1.00208383     0.65238427     0.00000000     0.00000000    -0.00000000

               Column   6     Column   7     Column   8     Column   9     Column  10
       1       0.00000000     0.00000000    -0.00808776     0.00000000     0.00000000
       2       0.00000000     0.00000000    -0.08934932     0.00000000     0.00000000
       3       0.00808776     0.08934932     0.00000000     0.13200808    -0.00000000
       4       0.00000000     0.00000000     0.13200808     0.00000000     0.00000000

               Column  11     Column  12
       1      -0.05338944     0.00385625
       2      -0.29264867     0.04856366
       3      -0.09759112     0.00187470
       4      -0.06587638    -0.05169810
       5      -0.15479430     0.01475683
    ==== End of matrix output ====


                        +---------------------------------+
                        ! Integrals of operator: SQHDL002 !
                        +---------------------------------+

 Symmetry of operator:  A  ( 1)

               Column   1     Column   2     Column   3     Column   4     Column   5
       1       0.00000000     0.00000000     0.00000000    -1.00208383     0.00000000
       2      -0.00000000    -0.00000000     0.00000000    -0.65238427     0.00000000
       4       1.00208383     0.65238427     0.00000000    -0.00000000    -0.00000000

               Column   6     Column   7     Column   8     Column   9     Column  10
       1       0.00000000     0.02310557     0.00000000     0.03649349     0.00000000
       2       0.02310557     0.22248820     0.00000000     0.22482721    -0.00000000
       3       0.00000000     0.00000000     0.13200808     0.00000000     0.00000000
       4      -0.03649349    -0.22482721     0.00000000    -0.16659519     0.00000000
       5       0.00000000    -0.00000000     0.00000000    -0.00000000     0.13200808

               Column  11     Column  12
       1      -0.01183039     0.00703422
       2      -0.06484707     0.08858535
       3      -0.06587638    -0.05169810
       4       0.18510539    -0.06408664
       5      -0.03430037     0.02691805
    ==== End of matrix output ====


                        +---------------------------------+
                        ! Integrals of operator: SQHDL003 !
                        +---------------------------------+

 Symmetry of operator:  A  ( 1)

               Column   1     Column   2     Column   3     Column   4     Column   5
       1      -0.00000000    -0.00000000     0.00000000     0.00000000    -1.00208383
       2       0.00000000     0.00000000     0.00000000     0.00000000    -0.65238427
       5       1.00208383     0.65238427     0.00000000     0.00000000     0.00000000

               Column   6     Column   7     Column   8     Column   9     Column  10
       1       0.00000000    -0.00000000     0.00000000    -0.00000000    -0.00808776
       2      -0.00000000     0.00000000     0.00000000     0.00000000    -0.08934932
       4       0.00000000    -0.00000000     0.00000000    -0.00000000     0.13200808
       5       0.00808776     0.08934932     0.00000000     0.13200808     0.00000000

               Column  11     Column  12
       1      -0.02779870    -0.00200787
       2      -0.15237566    -0.02528602
       3      -0.15479430     0.01475683
       4      -0.03430037     0.02691805
       5       0.11910477     0.02253272
    ==== End of matrix output ====


                        +---------------------------------+
                        ! Integrals of operator: SQHDL004 !
                        +---------------------------------+

 Symmetry of operator:  A  ( 1)

               Column   1     Column   2     Column   3     Column   4     Column   5
       6       0.00000000     0.00000000    -0.00808776     0.00000000     0.00000000
       7       0.00000000     0.00000000    -0.08934932     0.00000000     0.00000000
       8       0.00808776     0.08934932     0.00000000    -0.13200808    -0.00000000
       9       0.00000000     0.00000000    -0.13200808     0.00000000     0.00000000

               Column   6     Column   7     Column   8     Column   9     Column  10
       6       0.00000000     0.00000000    -1.00208383     0.00000000     0.00000000
       7       0.00000000     0.00000000    -0.65238427     0.00000000     0.00000000
       8       1.00208383     0.65238427     0.00000000    -0.00000000    -0.00000000

               Column  11     Column  12
       6      -0.00385625     0.05338944
       7      -0.04856366     0.29264867
       8       0.00187470    -0.09759112
       9      -0.05169810    -0.06587638
      10      -0.01475683     0.15479430
    ==== End of matrix output ====


                        +---------------------------------+
                        ! Integrals of operator: SQHDL005 !
                        +---------------------------------+

 Symmetry of operator:  A  ( 1)

               Column   1     Column   2     Column   3     Column   4     Column   5
       6      -0.00000000    -0.02310557     0.00000000     0.03649349    -0.00000000
       7      -0.02310557    -0.22248820     0.00000000     0.22482721     0.00000000
       8       0.00000000     0.00000000    -0.13200808     0.00000000     0.00000000
       9      -0.03649349    -0.22482721     0.00000000     0.16659519     0.00000000
      10      -0.00000000     0.00000000     0.00000000    -0.00000000    -0.13200808

               Column   6     Column   7     Column   8     Column   9     Column  10
       6      -0.00000000    -0.00000000     0.00000000    -1.00208383    -0.00000000
       7       0.00000000     0.00000000     0.00000000    -0.65238427    -0.00000000
       9       1.00208383     0.65238427     0.00000000     0.00000000    -0.00000000

               Column  11     Column  12
       6      -0.00703422     0.01183039
       7      -0.08858535     0.06484707
       8      -0.05169810    -0.06587638
       9      -0.06408664     0.18510539
      10      -0.02691805     0.03430037
    ==== End of matrix output ====


                        +---------------------------------+
                        ! Integrals of operator: SQHDL006 !
                        +---------------------------------+

 Symmetry of operator:  A  ( 1)

               Column   1     Column   2     Column   3     Column   4     Column   5
       6       0.00000000    -0.00000000     0.00000000     0.00000000    -0.00808776
       7      -0.00000000     0.00000000     0.00000000    -0.00000000    -0.08934932
       9      -0.00000000     0.00000000     0.00000000    -0.00000000    -0.13200808
      10       0.00808776     0.08934932     0.00000000    -0.13200808     0.00000000

               Column   6     Column   7     Column   8     Column   9     Column  10
       6      -0.00000000    -0.00000000     0.00000000    -0.00000000    -1.00208383
       7       0.00000000     0.00000000     0.00000000    -0.00000000    -0.65238427
      10       1.00208383     0.65238427     0.00000000    -0.00000000     0.00000000

               Column  11     Column  12
       6      -0.00200787    -0.02779870
       7      -0.02528602    -0.15237566
       8      -0.01475683     0.15479430
       9      -0.02691805     0.03430037
      10       0.02253272     0.11910477
    ==== End of matrix output ====


                        +---------------------------------+
                        ! Integrals of operator: SQHDL007 !
                        +---------------------------------+

 Symmetry of operator:  A  ( 1)

               Column   1     Column   2     Column   3     Column   4     Column   5
      11       0.05338944     0.29264867     0.09759112     0.06587638     0.15479430

               Column   6     Column   7     Column   8     Column   9     Column  10
      11       0.00385625     0.04856366    -0.00187470     0.05169810     0.01475683

               Column  11     Column  12
      11      -0.00000000     0.03477712
    ==== End of matrix output ====


                        +---------------------------------+
                        ! Integrals of operator: SQHDL008 !
                        +---------------------------------+

 Symmetry of operator:  A  ( 1)

               Column   1     Column   2     Column   3     Column   4     Column   5
      11       0.01183039     0.06484707     0.06587638    -0.18510539     0.03430037

               Column   6     Column   7     Column   8     Column   9     Column  10
      11       0.00703422     0.08858535     0.05169810     0.06408664     0.02691805

               Column  11     Column  12
      11      -0.00000000     0.03557169
    ==== End of matrix output ====


                        +---------------------------------+
                        ! Integrals of operator: SQHDL009 !
                        +---------------------------------+

 Symmetry of operator:  A  ( 1)

               Column   1     Column   2     Column   3     Column   4     Column   5
      11       0.02779870     0.15237566     0.15479430     0.03430037    -0.11910477

               Column   6     Column   7     Column   8     Column   9     Column  10
      11       0.00200787     0.02528602     0.01475683     0.02691805    -0.02253272

               Column  11     Column  12
    ==== End of matrix output ====


                        +---------------------------------+
                        ! Integrals of operator: SQHDL010 !
                        +---------------------------------+

 Symmetry of operator:  A  ( 1)

               Column   1     Column   2     Column   3     Column   4     Column   5
      12      -0.00385625    -0.04856366    -0.00187470     0.05169810    -0.01475683

               Column   6     Column   7     Column   8     Column   9     Column  10
      12      -0.05338944    -0.29264867     0.09759112     0.06587638    -0.15479430

               Column  11     Column  12
      12      -0.03477712     0.00000000
    ==== End of matrix output ====


                        +---------------------------------+
                        ! Integrals of operator: SQHDL011 !
                        +---------------------------------+

 Symmetry of operator:  A  ( 1)

               Column   1     Column   2     Column   3     Column   4     Column   5
      12      -0.00703422    -0.08858535     0.05169810     0.06408664    -0.02691805

               Column   6     Column   7     Column   8     Column   9     Column  10
      12      -0.01183039    -0.06484707     0.06587638    -0.18510539    -0.03430037

               Column  11     Column  12
      12      -0.03557169     0.00000000
    ==== End of matrix output ====


                        +---------------------------------+
                        ! Integrals of operator: SQHDL012 !
                        +---------------------------------+

 Symmetry of operator:  A  ( 1)

               Column   1     Column   2     Column   3     Column   4     Column   5
      12       0.00200787     0.02528602    -0.01475683    -0.02691805    -0.02253272

               Column   6     Column   7     Column   8     Column   9     Column  10
      12       0.02779870     0.15237566    -0.15479430    -0.03430037    -0.11910477

               Column  11     Column  12
    ==== End of matrix output ====


                        +---------------------------------+
                        ! Integrals of operator: SQHDR001 !
                        +---------------------------------+

 Symmetry of operator:  A  ( 1)

               Column   1     Column   2     Column   3     Column   4     Column   5
       1       0.00000000     0.00000000     1.00208383     0.00000000     0.00000000
       2       0.00000000     0.00000000     0.65238427     0.00000000     0.00000000
       3      -1.00208383    -0.65238427     0.00000000    -0.00000000     0.00000000
       6       0.00000000     0.00000000     0.00808776     0.00000000     0.00000000
       7       0.00000000     0.00000000     0.08934932     0.00000000     0.00000000
       8      -0.00808776    -0.08934932     0.00000000     0.13200808     0.00000000
       9       0.00000000     0.00000000     0.13200808     0.00000000     0.00000000
      11      -0.05338944    -0.29264867    -0.09759112    -0.06587638    -0.15479430
      12       0.00385625     0.04856366     0.00187470    -0.05169810     0.01475683

               Column   6     Column   7     Column   8     Column   9     Column  10

               Column  11     Column  12
    ==== End of matrix output ====


                        +---------------------------------+
                        ! Integrals of operator: SQHDR002 !
                        +---------------------------------+

 Symmetry of operator:  A  ( 1)

               Column   1     Column   2     Column   3     Column   4     Column   5
       1       0.00000000    -0.00000000     0.00000000     1.00208383     0.00000000
       2       0.00000000    -0.00000000     0.00000000     0.65238427     0.00000000
       4      -1.00208383    -0.65238427     0.00000000    -0.00000000     0.00000000
       6       0.00000000     0.02310557     0.00000000    -0.03649349     0.00000000
       7       0.02310557     0.22248820     0.00000000    -0.22482721    -0.00000000
       8       0.00000000     0.00000000     0.13200808     0.00000000     0.00000000
       9       0.03649349     0.22482721     0.00000000    -0.16659519    -0.00000000
      10       0.00000000    -0.00000000     0.00000000     0.00000000     0.13200808
      11      -0.01183039    -0.06484707    -0.06587638     0.18510539    -0.03430037
      12       0.00703422     0.08858535    -0.05169810    -0.06408664     0.02691805

               Column   6     Column   7     Column   8     Column   9     Column  10

               Column  11     Column  12
    ==== End of matrix output ====


                        +---------------------------------+
                        ! Integrals of operator: SQHDR003 !
                        +---------------------------------+

 Symmetry of operator:  A  ( 1)

               Column   1     Column   2     Column   3     Column   4     Column   5
       1      -0.00000000     0.00000000     0.00000000     0.00000000     1.00208383
       2      -0.00000000     0.00000000     0.00000000     0.00000000     0.65238427
       5      -1.00208383    -0.65238427     0.00000000    -0.00000000     0.00000000
       6       0.00000000    -0.00000000     0.00000000     0.00000000     0.00808776
       7      -0.00000000     0.00000000     0.00000000    -0.00000000     0.08934932
       9      -0.00000000     0.00000000     0.00000000    -0.00000000     0.13200808
      10      -0.00808776    -0.08934932     0.00000000     0.13200808     0.00000000
      11      -0.02779870    -0.15237566    -0.15479430    -0.03430037     0.11910477
      12      -0.00200787    -0.02528602     0.01475683     0.02691805     0.02253272

               Column   6     Column   7     Column   8     Column   9     Column  10

               Column  11     Column  12
    ==== End of matrix output ====


                        +---------------------------------+
                        ! Integrals of operator: SQHDR004 !
                        +---------------------------------+

 Symmetry of operator:  A  ( 1)

               Column   1     Column   2     Column   3     Column   4     Column   5

               Column   6     Column   7     Column   8     Column   9     Column  10
       1       0.00000000     0.00000000     0.00808776     0.00000000     0.00000000
       2       0.00000000     0.00000000     0.08934932     0.00000000     0.00000000
       3      -0.00808776    -0.08934932     0.00000000    -0.13200808     0.00000000
       4       0.00000000     0.00000000    -0.13200808     0.00000000     0.00000000
       6       0.00000000     0.00000000     1.00208383     0.00000000     0.00000000
       7       0.00000000     0.00000000     0.65238427     0.00000000     0.00000000
       8      -1.00208383    -0.65238427     0.00000000     0.00000000     0.00000000
      11      -0.00385625    -0.04856366     0.00187470    -0.05169810    -0.01475683
      12       0.05338944     0.29264867    -0.09759112    -0.06587638     0.15479430

               Column  11     Column  12
    ==== End of matrix output ====


                        +---------------------------------+
                        ! Integrals of operator: SQHDR005 !
                        +---------------------------------+

 Symmetry of operator:  A  ( 1)

               Column   1     Column   2     Column   3     Column   4     Column   5

               Column   6     Column   7     Column   8     Column   9     Column  10
       1      -0.00000000    -0.02310557     0.00000000    -0.03649349    -0.00000000
       2      -0.02310557    -0.22248820     0.00000000    -0.22482721     0.00000000
       3       0.00000000     0.00000000    -0.13200808     0.00000000     0.00000000
       4       0.03649349     0.22482721     0.00000000     0.16659519    -0.00000000
       5      -0.00000000     0.00000000     0.00000000     0.00000000    -0.13200808
       6      -0.00000000     0.00000000     0.00000000     1.00208383    -0.00000000
       7      -0.00000000     0.00000000     0.00000000     0.65238427    -0.00000000
       9      -1.00208383    -0.65238427     0.00000000     0.00000000     0.00000000
      11      -0.00703422    -0.08858535    -0.05169810    -0.06408664    -0.02691805
      12       0.01183039     0.06484707    -0.06587638     0.18510539     0.03430037

               Column  11     Column  12
    ==== End of matrix output ====


                        +---------------------------------+
                        ! Integrals of operator: SQHDR006 !
                        +---------------------------------+

 Symmetry of operator:  A  ( 1)

               Column   1     Column   2     Column   3     Column   4     Column   5

               Column   6     Column   7     Column   8     Column   9     Column  10
       1       0.00000000    -0.00000000     0.00000000    -0.00000000     0.00808776
       2      -0.00000000     0.00000000     0.00000000     0.00000000     0.08934932
       4       0.00000000    -0.00000000     0.00000000    -0.00000000    -0.13200808
       5      -0.00808776    -0.08934932     0.00000000    -0.13200808     0.00000000
       6      -0.00000000     0.00000000     0.00000000    -0.00000000     1.00208383
       7      -0.00000000     0.00000000     0.00000000    -0.00000000     0.65238427
      10      -1.00208383    -0.65238427     0.00000000     0.00000000     0.00000000
      11      -0.00200787    -0.02528602    -0.01475683    -0.02691805     0.02253272
      12      -0.02779870    -0.15237566     0.15479430     0.03430037     0.11910477

               Column  11     Column  12
    ==== End of matrix output ====


                        +---------------------------------+
                        ! Integrals of operator: SQHDR007 !
                        +---------------------------------+

 Symmetry of operator:  A  ( 1)

               Column   1     Column   2     Column   3     Column   4     Column   5

               Column   6     Column   7     Column   8     Column   9     Column  10

               Column  11     Column  12
       1       0.05338944     0.00000000
       2       0.29264867     0.00000000
       3       0.09759112     0.00000000
[...]
       9       0.00217537     0.00724993    -0.00128099     0.01463402    -0.00714165
      10      -0.00119117     0.01392402    -0.00246024    -0.00761592     0.01399049
      11       0.00149606     0.00309764     0.01550180    -0.00000095     0.00290147
      12       0.00361613    -0.00724993     0.00128099    -0.01463436    -0.00714165

               Column  11     Column  12
       1      -0.00128440     0.00060941
       2       0.00074082    -0.00017621
       3      -0.00011685    -0.00089345
       4       0.00128440    -0.00060941
       5      -0.00074082     0.00017621
       6      -0.00011685    -0.00089345
       7       0.00106143    -0.00720378
       8      -0.01524749     0.00038125
       9       0.00185452     0.01417973
      10      -0.00106143     0.00720378
      11       0.01524749    -0.00038125
      12       0.00185452     0.01417973
    ==== End of matrix output ====


                  Non-zero eigenvalues of mass-weighted Hessian
                  ---------------------------------------------


               Column   1     Column   2     Column   3     Column   4     Column   5
       1     3.572455E-04   3.559743E-04   6.585418E-05   5.246004E-05   4.590127E-05

               Column   6
       1     7.076971E-07
    ==== End of matrix output ====


                  Non-zero normal coordinates in Cartesian basis
                  ----------------------------------------------


               Column   1     Column   2     Column   3     Column   4     Column   5
       1      -0.00087734     0.00089715    -0.00128440     0.00015502    -0.00020474
       2      -0.00019518     0.00025315     0.00074082    -0.00097675    -0.00406259
       3      -0.00045631     0.00044999    -0.00011685     0.00073775     0.00004548
       4      -0.00087734    -0.00089715     0.00128440     0.00015502     0.00020474
       5      -0.00019518    -0.00025315    -0.00074082    -0.00097675     0.00406259
       6       0.00045631     0.00044999    -0.00011685    -0.00073775     0.00004548
       7       0.01392402    -0.01399049     0.00106143    -0.00246024    -0.00036577
       8       0.00309764    -0.00290147    -0.01524749     0.01550180    -0.00297774
       9       0.00724993    -0.00714165     0.00185452    -0.00128099    -0.00072185
      10       0.01392402     0.01399049    -0.00106143    -0.00246024     0.00036577
      11       0.00309764     0.00290147     0.01524749     0.01550180     0.00297774
      12      -0.00724993    -0.00714165     0.00185452     0.00128099    -0.00072185

               Column   6
       1       0.00060941
       2      -0.00017621
       3      -0.00089345
       4      -0.00060941
       5       0.00017621
       6      -0.00089345
       7      -0.00720378
       8       0.00038125
       9       0.01417973
      10       0.00720378
      11      -0.00038125
      12       0.01417973
    ==== End of matrix output ====


                       Normal coordinates in symmetry basis
                       ------------------------------------


               Column   1     Column   2     Column   3     Column   4     Column   5
       1      -0.00087734     0.00089715    -0.00128440     0.00015502    -0.00020474
       2      -0.00019518     0.00025315     0.00074082    -0.00097675    -0.00406259
       3      -0.00045631     0.00044999    -0.00011685     0.00073775     0.00004548
       4      -0.00087734    -0.00089715     0.00128440     0.00015502     0.00020474
       5      -0.00019518    -0.00025315    -0.00074082    -0.00097675     0.00406259
       6       0.00045631     0.00044999    -0.00011685    -0.00073775     0.00004548
       7       0.01392402    -0.01399049     0.00106143    -0.00246024    -0.00036577
       8       0.00309764    -0.00290147    -0.01524749     0.01550180    -0.00297774
       9       0.00724993    -0.00714165     0.00185452    -0.00128099    -0.00072185
      10       0.01392402     0.01399049    -0.00106143    -0.00246024     0.00036577
      11       0.00309764     0.00290147     0.01524749     0.01550180     0.00297774
      12      -0.00724993    -0.00714165     0.00185452     0.00128099    -0.00072185

               Column   6     Column   7     Column   8     Column   9     Column  10
       1       0.00060941     0.00552099     0.00000282     0.00034238    -0.00009021
       2      -0.00017621     0.00011675     0.00000008    -0.00011159     0.00013067
       3      -0.00089345     0.00000003     0.00000157     0.00000639     0.00570250
       4      -0.00060941     0.00003894     0.00000265     0.00552592    -0.00009994
       5       0.00017621     0.00011675     0.00000008    -0.00011159     0.00013067
       6      -0.00089345     0.00017277    -0.00000191    -0.00016983    -0.00014100
       7      -0.00720378     0.00564459    -0.00761569    -0.00095032     0.00146136
       8       0.00038125    -0.00324801    -0.00000116     0.00306577    -0.00177402
       9       0.01417973     0.00119459     0.01463402     0.00113692     0.00353319
      10       0.00720378    -0.00135350    -0.00761592     0.00566672     0.00144894
      11      -0.00038125     0.00359377    -0.00000095    -0.00340346    -0.00176188
      12       0.01417973    -0.00102179    -0.01463436    -0.00130035     0.00202831

               Column  11     Column  12
       1      -0.00006874    -0.00015527
       2      -0.00012434     0.00401221
       3       0.00009507    -0.00002520
       4       0.00025105     0.00015865
       5      -0.00012434     0.00401221
       6       0.00569644     0.00001397
       7      -0.00159940    -0.00020928
       8       0.00189517     0.00422082
       9       0.00217537    -0.00001025
      10      -0.00119117     0.00019146
      11       0.00149606     0.00382904
      12       0.00361613    -0.00000097
    ==== End of matrix output ====


                                Sorted eigenvalues
                                ------------------


               Column   1     Column   2     Column   3     Column   4     Column   5
       1     3.572455E-04   3.559743E-04   6.585418E-05   5.246004E-05   4.590127E-05

               Column   6
       1     7.076971E-07
    ==== End of matrix output ====


                   Sorted normal coordinates in Cartesian basis
                   --------------------------------------------


               Column   1     Column   2     Column   3     Column   4     Column   5
       1      -0.00087734     0.00089715    -0.00128440     0.00015502    -0.00020474
       2      -0.00019518     0.00025315     0.00074082    -0.00097675    -0.00406259
       3      -0.00045631     0.00044999    -0.00011685     0.00073775     0.00004548
       4      -0.00087734    -0.00089715     0.00128440     0.00015502     0.00020474
       5      -0.00019518    -0.00025315    -0.00074082    -0.00097675     0.00406259
       6       0.00045631     0.00044999    -0.00011685    -0.00073775     0.00004548
       7       0.01392402    -0.01399049     0.00106143    -0.00246024    -0.00036577
       8       0.00309764    -0.00290147    -0.01524749     0.01550180    -0.00297774
       9       0.00724993    -0.00714165     0.00185452    -0.00128099    -0.00072185
      10       0.01392402     0.01399049    -0.00106143    -0.00246024     0.00036577
      11       0.00309764     0.00290147     0.01524749     0.01550180     0.00297774
      12      -0.00724993    -0.00714165     0.00185452     0.00128099    -0.00072185

               Column   6
       1       0.00060941
       2      -0.00017621
       3      -0.00089345
       4      -0.00060941
       5       0.00017621
       6      -0.00089345
       7      -0.00720378
       8       0.00038125
       9       0.01417973
      10       0.00720378
      11      -0.00038125
      12       0.01417973
    ==== End of matrix output ====


                   Sorted normal coordinates in symmetry basis
                   -------------------------------------------


               Column   1     Column   2     Column   3     Column   4     Column   5
       1      -0.00087734     0.00089715    -0.00128440     0.00015502    -0.00020474
       2      -0.00019518     0.00025315     0.00074082    -0.00097675    -0.00406259
       3      -0.00045631     0.00044999    -0.00011685     0.00073775     0.00004548
       4      -0.00087734    -0.00089715     0.00128440     0.00015502     0.00020474
       5      -0.00019518    -0.00025315    -0.00074082    -0.00097675     0.00406259
       6       0.00045631     0.00044999    -0.00011685    -0.00073775     0.00004548
       7       0.01392402    -0.01399049     0.00106143    -0.00246024    -0.00036577
       8       0.00309764    -0.00290147    -0.01524749     0.01550180    -0.00297774
       9       0.00724993    -0.00714165     0.00185452    -0.00128099    -0.00072185
      10       0.01392402     0.01399049    -0.00106143    -0.00246024     0.00036577
      11       0.00309764     0.00290147     0.01524749     0.01550180     0.00297774
      12      -0.00724993    -0.00714165     0.00185452     0.00128099    -0.00072185

               Column   6
       1       0.00060941
       2      -0.00017621
       3      -0.00089345
       4      -0.00060941
       5       0.00017621
       6      -0.00089345
       7      -0.00720378
       8       0.00038125
       9       0.01417973
      10       0.00720378
      11      -0.00038125
      12       0.01417973
    ==== End of matrix output ====

 Eigenvalues (Hartrees):
           1  3.572455191606058E-004           2  3.559742792025582E-004
           3  6.585417834955057E-005           4  5.246003549694658E-005
           5  4.590126876208675E-005           6  7.076970880511757E-007
           7  3.554259030710348E-021           8  6.403354265812666E-022
           9 -5.753627538940188E-022          10 -2.190207086624770E-021
          11 -2.623540933806226E-021          12 -5.081815163955135E-021

 The eigenvectors (normal coordinates):

               Column   1     Column   2     Column   3     Column   4     Column   5
       1      -0.00087734     0.00089715    -0.00128440     0.00015502    -0.00020474
       2      -0.00019518     0.00025315     0.00074082    -0.00097675    -0.00406259
       3      -0.00045631     0.00044999    -0.00011685     0.00073775     0.00004548
       4      -0.00087734    -0.00089715     0.00128440     0.00015502     0.00020474
       5      -0.00019518    -0.00025315    -0.00074082    -0.00097675     0.00406259
       6       0.00045631     0.00044999    -0.00011685    -0.00073775     0.00004548
       7       0.01392402    -0.01399049     0.00106143    -0.00246024    -0.00036577
       8       0.00309764    -0.00290147    -0.01524749     0.01550180    -0.00297774
       9       0.00724993    -0.00714165     0.00185452    -0.00128099    -0.00072185
      10       0.01392402     0.01399049    -0.00106143    -0.00246024     0.00036577
      11       0.00309764     0.00290147     0.01524749     0.01550180     0.00297774
      12      -0.00724993    -0.00714165     0.00185452     0.00128099    -0.00072185

               Column   6     Column   7     Column   8     Column   9     Column  10
       1       0.00060941     0.00552099     0.00000282     0.00034238    -0.00009021
       2      -0.00017621     0.00011675     0.00000008    -0.00011159     0.00013067
       3      -0.00089345     0.00000003     0.00000157     0.00000639     0.00570250
       4      -0.00060941     0.00003894     0.00000265     0.00552592    -0.00009994
       5       0.00017621     0.00011675     0.00000008    -0.00011159     0.00013067
       6      -0.00089345     0.00017277    -0.00000191    -0.00016983    -0.00014100
       7      -0.00720378     0.00564459    -0.00761569    -0.00095032     0.00146136
       8       0.00038125    -0.00324801    -0.00000116     0.00306577    -0.00177402
       9       0.01417973     0.00119459     0.01463402     0.00113692     0.00353319
      10       0.00720378    -0.00135350    -0.00761592     0.00566672     0.00144894
      11      -0.00038125     0.00359377    -0.00000095    -0.00340346    -0.00176188
      12       0.01417973    -0.00102179    -0.01463436    -0.00130035     0.00202831

               Column  11     Column  12
       1      -0.00006874    -0.00015527
       2      -0.00012434     0.00401221
       3       0.00009507    -0.00002520
       4       0.00025105     0.00015865
       5      -0.00012434     0.00401221
       6       0.00569644     0.00001397
       7      -0.00159940    -0.00020928
       8       0.00189517     0.00422082
       9       0.00217537    -0.00001025
      10      -0.00119117     0.00019146
      11       0.00149606     0.00382904
      12       0.00361613    -0.00000097
    ==== End of matrix output ====


  Vibrational Frequencies and IR Intensities
  ------------------------------------------

  mode   irrep        frequency             IR intensity
  ============================================================
                  cm-1       hartrees     km/mol   (D/A)**2/amu
  ------------------------------------------------------------
   1      A      4148.28    0.018901     30.302   0.7171
   2      A      4140.89    0.018867     12.714   0.3009
   3      A      1781.05    0.008115      2.073   0.0491
   4      A      1589.64    0.007243     46.080   1.0905
   5      A      1486.95    0.006775      0.017   0.0004
   6      A       184.63    0.000841    134.197   3.1759



  Normal Coordinates (bohrs*amu**(1/2)):
  --------------------------------------


                1  4148     2  4141     3  1781     4  1590     5  1487 
  ----------------------------------------------------------------------

    O      x   -0.037458    0.038304   -0.054838    0.006619   -0.008741
    O      y   -0.008333    0.010808    0.031630   -0.041703   -0.173453
    O      z   -0.019482    0.019212   -0.004989    0.031499    0.001942

    O      x   -0.037458   -0.038304    0.054838    0.006619    0.008741
    O      y   -0.008333   -0.010808   -0.031630   -0.041703    0.173453
    O      z    0.019482    0.019212   -0.004989   -0.031499    0.001942

    H      x    0.594490   -0.597328    0.045318   -0.105040   -0.015617
    H      y    0.132255   -0.123879   -0.650996    0.661854   -0.127135
    H      z    0.309538   -0.304915    0.079179   -0.054692   -0.030820

    H      x    0.594490    0.597328   -0.045318   -0.105040    0.015617
    H      y    0.132255    0.123879    0.650996    0.661854    0.127135
    H      z   -0.309538   -0.304915    0.079179    0.054692   -0.030820


                6   185 
  ----------------------

    O      x    0.026019
    O      y   -0.007523
    O      z   -0.038146

    O      x   -0.026019
    O      y    0.007523
    O      z   -0.038146

    H      x   -0.307568
    H      y    0.016278
    H      z    0.605408

    H      x    0.307568
    H      y   -0.016278
    H      z    0.605408




  Dipole Gradient in Normal Coordinate Basis (D/(A*amu**(1/2)))
  -------------------------------------------------------------


  mode           dMA/dQi        dMB/dQi        dMC/dQi
  ----------------------------------------------------
   1           -0.826930       0.182501      -0.000000
   2           -0.000000       0.000000       0.548521
   3           -0.000000       0.000000      -0.221473
   4            0.158364       1.032193       0.000000
   5           -0.000000       0.000000      -0.019965
   6           -0.000000      -0.000000       1.782093




  Dipole and rotational strengths
  -------------------------------

  Units: 10**(-40) (esu**2)*(cm**2) (dipole strength)
         10**(-44) (esu**2)*(cm**2) (rotational strength)

  mode       frequency      dip. str.      rot. str.
  --------------------------------------------------
   1          4148.28         29.142        -50.519
   2          4140.89         12.249         53.521
   3          1781.05          4.643        -28.608
   4          1589.64        115.644         14.694
   5          1486.95          0.045         -1.098
   6           184.63       2899.674       -101.250



                              Total Molecular Energy
                              ----------------------

             electronic     vibrational           total    energy 

            -148.764997        0.030371     -148.734625    Hartrees
           -32650142.49         6665.72    -32643476.77    cm-1
             -390582.44           79.74      -390502.70    kJ/mol
              -93351.44           19.06       -93332.38    kcal/mol


                          Molecular Partition Functions
                          -----------------------------

 Qtran is evaluated per mol at 1 atm. pressure.
 Qrot does not include symmetry numbers.
 Qvib does not include zero point energies
 (i.e., energy scale has vibrational ground state as zero).


 Temp.(K)  Translational     Rotational    Vibrational      Total

    50.00     8.9766D+04         128.12         1.0050   1.155764D+07
   100.00     5.0779D+05         360.83         1.0755   1.970601D+08
   200.00     2.8725D+06        1018.40         1.3605   3.979942D+09
   273.15     6.2617D+06        1624.52         1.6092   1.636903D+10
   298.15     7.7942D+06        1852.33         1.6981   2.451563D+10
   300.00     7.9157D+06        1869.58         1.7047   2.522794D+10
   400.00     1.6249D+07        2877.37         2.0808   9.729009D+10
   500.00     2.8387D+07        4020.39         2.5009   2.854177D+11
   600.00     4.4778D+07        5284.18         2.9838   7.060091D+11
   700.00     6.5831D+07        6658.15         3.5473   1.554826D+12
   800.00     9.1920D+07        8134.08         4.2082   3.146384D+12
   900.00     1.2339D+08        9705.35         4.9831   5.967659D+12
  1000.00     1.6058D+08       11366.50         5.8898   1.075013D+13
  1500.00     4.4250D+08       20878.60        13.1480   1.214716D+14
  2000.00     9.0837D+08       32142.40        27.5988   8.058060D+14


                                +------------------+
                                ! Polarizabilities !
                                +------------------+


 Vibrational polarizabilities calculated acc. to Rinaldi et al.,
 Chem.Phys.Lett. 128 (1986) 177-181.


                        Vibrational Polarizabilities (au)
                        ---------------------------------

                         Ex          Ey          Ez

            Ex       0.056882    0.064046   -0.000000
            Ey       0.064046    0.485133   -0.000000
            Ez      -0.000000   -0.000000  106.744560



                   Vibrational Polarizabilities (angstroms**3)
                   -------------------------------------------

                         Ex          Ey          Ez

            Ex       0.008429    0.009491   -0.000000
            Ey       0.009491    0.071889   -0.000000
            Ez      -0.000000   -0.000000   15.817912



                   Vibrational Polarizabilities (angstroms**3)
                   -------------------------------------------

               (Along principal axes of moments of inertia)

                         EA          EB          EC

            EA       0.073134    0.003088   -0.000000
            EB       0.003088    0.007184   -0.000000
            EC      -0.000000   -0.000000   15.817912



 Vibrational mean polarization :   13.3838 cm**3 mol**-1
  Total CPU  time used in ABACUS:   0.14 seconds
  Total wall time used in ABACUS:   0.85 seconds


                   .-------------------------------------------.
                   | End of Static Property Section (ABACUS) - |
                   `-------------------------------------------'

  Total CPU  time used in DALTON:   0.19 seconds
  Total wall time used in DALTON:   1.28 seconds

 
     Date and time (Linux)  : Tue Sep 29 13:14:10 2020
     Host name              : calogin2                                
